Title: ** full circuit **
Date: Sun Jan 29 17:44:52 2023
Plotname: DC transfer characteristic
Flags: real forward
No. Variables: 33
No. Points:           41
Offset:   0.0000000000000000e+000
Command: Linear Technology Corporation LTspice XVII
Variables:
	0	vv1	voltage
	1	V(sc1_l_vin_dig)	voltage
	2	V(sc2_l_vin_dig)	voltage
	3	V(sc3_l_vin_dig)	voltage
	4	V(1)	voltage
	5	V(15)	voltage
	6	V(2)	voltage
	7	V(vb_1k)	voltage
	8	V(vb)	voltage
	9	V(vb_100)	voltage
	10	V(sc7_l_v_in)	voltage
	11	V(6)	voltage
	12	V(sc1_l_vin_an)	voltage
	13	V(5)	voltage
	14	V(v_an_10)	voltage
	15	V(v_an_100)	voltage
	16	V(v_an_1k)	voltage
	17	V(sc4_l_v_out)	voltage
	18	V(sc5_l_v_out)	voltage
	19	V(sc6_l_v_out)	voltage
	20	V(sc7_l_v_out)	voltage
	21	V(sc8_l_v_out)	voltage
	22	V(sc9_l_v_out)	voltage
	23	V(sc10_l_v_out)	voltage
	24	Ie(Qq2)	device_current
	25	Ic(Qq1)	device_current
	26	Ib(Qq1)	device_current
	27	Ie(Qq1)	device_current
	28	I(Rrc1)	device_current
	29	I(Rrc2)	device_current
	30	I(Rrc3)	device_current
	31	I(Rrb2)	device_current
	32	I(Rrb1)	device_current
Values:
0		1.782227000000000e+000
	5.000000000000000e+000
	0.000000000000000e+000
	0.000000000000000e+000
	0.000000000000000e+000
	5.000000000000000e+000
	1.782227000000000e+000
	1.780676795459688e+000
	8.033620160675874e-001
	8.033670878615824e-001
	8.167239734435107e+000
	4.943848000000000e+000
	9.897404456550342e+000
	1.066803995203888e+001
	9.859836655800150e+000
	8.167245625617277e+000
	8.167298646273583e+000
	1.971948677198120e+000
	1.633437017808084e+000
	1.633447621734931e+000
	1.633435839594361e+000
	3.213786242641976e-001
	7.122951613552905e-001
	3.213765955846530e-001
	-1.694089649558393e-001
	1.692598504338931e-001
	9.774162236421732e-004
	-1.702372666575213e-001
	5.891183847595016e-008
	5.891182169648346e-008
	1.692596921365043e-001
	5.071793995004015e-008
	9.773147793921003e-004
1		1.783448000000000e+000
	5.000000000000000e+000
	0.000000000000000e+000
	0.000000000000000e+000
	0.000000000000000e+000
	5.000000000000000e+000
	1.783448000000000e+000
	1.781895821808898e+000
	8.034280149293763e-001
	8.034330867224448e-001
	8.165615157815617e+000
	4.943848000000000e+000
	9.897404454824450e+000
	1.066809323541044e+001
	9.859801366724016e+000
	8.165621049028148e+000
	8.165674069923723e+000
	1.971941619519821e+000
	1.633112108753535e+000
	1.633122712728234e+000
	1.633110930533739e+000
	3.214050233130386e-001
	7.127827627155838e-001
	3.214029946338652e-001
	-1.695678743376758e-001
	1.694187598167307e-001
	9.785692641616473e-004
	-1.703973290808842e-001
	5.891210810560211e-008
	5.891212531139445e-008
	1.694186208908398e-001
	5.071793068522901e-008
	9.784678068795215e-004
2		1.784669000000000e+000
	5.000000000000000e+000
	0.000000000000000e+000
	0.000000000000000e+000
	0.000000000000000e+000
	5.000000000000000e+000
	1.784669000000000e+000
	1.783114847030175e+000
	8.034939294763568e-001
	8.034990012685002e-001
	8.163991647281259e+000
	4.943848000000000e+000
	9.897404453076831e+000
	1.066814644476979e+001
	9.859766100339355e+000
	8.163997538524132e+000
	8.164050559688393e+000
	1.971934566379738e+000
	1.632787412911846e+000
	1.632798016940285e+000
	1.632786234685983e+000
	3.214313886368953e-001
	7.132703636248552e-001
	3.214293599580920e-001
	-1.697267270759712e-001
	1.695776125557232e-001
	9.797223514249266e-004
	-1.705573349071472e-001
	5.891240713395974e-008
	5.891242873090619e-008
	1.695774453058096e-001
	5.071792143374054e-008
	9.796209175538179e-004
3		1.785890000000000e+000
	5.000000000000000e+000
	0.000000000000000e+000
	0.000000000000000e+000
	0.000000000000000e+000
	5.000000000000000e+000
	1.785890000000000e+000
	1.784333871974850e+000
	8.035598204808174e-001
	8.035648922720360e-001
	8.162368425723484e+000
	4.943848000000000e+000
	9.897404451329548e+000
	1.066819963345321e+001
	9.859730840220065e+000
	8.162374316996692e+000
	8.162427338458755e+000
	1.971927514492701e+000
	1.632462774864339e+000
	1.632473378952340e+000
	1.632461596632410e+000
	3.214577445439203e-001
	7.137579644234675e-001
	3.214557158654867e-001
	-1.698855232196453e-001
	1.697364087005789e-001
	9.808754853449016e-004
	-1.707172841859244e-001
	5.891273527147689e-008
	5.891273207936365e-008
	1.697362414496581e-001
	5.071791218558275e-008
	9.807740514940326e-004
4		1.787111000000000e+000
	5.000000000000000e+000
	0.000000000000000e+000
	0.000000000000000e+000
	0.000000000000000e+000
	5.000000000000000e+000
	1.787111000000000e+000
	1.785552896366777e+000
	8.036256643663693e-001
	8.036307361566641e-001
	8.160745782148268e+000
	4.943848000000000e+000
	9.897404449582940e+000
	1.066825278075290e+001
	9.859695592632114e+000
	8.160751673451802e+000
	8.160804695181161e+000
	1.971920465111886e+000
	1.632138252411079e+000
	1.632148856552536e+000
	1.632137074173081e+000
	3.214840816037367e-001
	7.142455650009431e-001
	3.214820529256722e-001
	-1.700442628185331e-001
	1.698951483001328e-001
	9.820286658301924e-004
	-1.708771769659707e-001
	5.891303289295990e-008
	5.891303533900327e-008
	1.698949810483846e-001
	5.071790294852718e-008
	9.819272320004074e-004
5		1.788332000000000e+000
	5.000000000000000e+000
	0.000000000000000e+000
	0.000000000000000e+000
	0.000000000000000e+000
	5.000000000000000e+000
	1.788332000000000e+000
	1.786771920205382e+000
	8.036914612213552e-001
	8.036965330107271e-001
	8.159123716054856e+000
	4.943848000000000e+000
	9.897404447836994e+000
	1.066830588675067e+001
	9.859660357564724e+000
	8.159129607388705e+000
	8.159182629395286e+000
	1.971913418235132e+000
	1.631813845451909e+000
	1.631824449648812e+000
	1.631812667207850e+000
	3.215103998516781e-001
	7.147331653570532e-001
	3.215083711739843e-001
	-1.702029459211344e-001
	1.700538314035309e-001
	9.831818927928350e-004
	-1.710370132963191e-001
	5.891334043006680e-008
	5.891333849206149e-008
	1.700536641509869e-001
	5.071789371924318e-008
	9.830804589840265e-004
6		1.789553000000000e+000
	5.000000000000000e+000
	0.000000000000000e+000
	0.000000000000000e+000
	0.000000000000000e+000
	5.000000000000000e+000
	1.789553000000000e+000
	1.787990943490125e+000
	8.037572111339894e-001
	8.037622829224392e-001
	8.157502226941457e+000
	4.943848000000000e+000
	9.897404446091692e+000
	1.066835895152858e+001
	9.859625135006924e+000
	8.157508118305609e+000
	8.157561140557585e+000
	1.971906373860247e+000
	1.631489553886476e+000
	1.631500158132460e+000
	1.631488375636358e+000
	3.215366993230329e-001
	7.152207654915815e-001
	3.215346706457075e-001
	-1.703615725764661e-001
	1.702124580599485e-001
	9.843351661448657e-004
	-1.711967932261014e-001
	5.891361612775370e-008
	5.891364152077472e-008
	1.702122908065468e-001
	5.071788449884096e-008
	9.842337323561355e-004
7		1.790773999999999e+000
	5.000000000000000e+000
	0.000000000000000e+000
	0.000000000000000e+000
	0.000000000000000e+000
	5.000000000000000e+000
	1.790773999999999e+000
	1.789209966220433e+000
	8.038229141921759e-001
	8.038279859797048e-001
	8.155881314307720e+000
	4.943848000000000e+000
	9.897404444347071e+000
	1.066841197516823e+001
	9.859589924947953e+000
	8.155887205702168e+000
	8.155940228225710e+000
	1.971899331985084e+000
	1.631165377614714e+000
	1.631175981915011e+000
	1.631164199358537e+000
	3.215629800529603e-001
	7.157083654043003e-001
	3.215609513760033e-001
	-1.705201428341152e-001
	1.703710283185759e-001
	9.854884857957585e-004
	-1.713565168043814e-001
	5.891391798940049e-008
	5.891394447843368e-008
	1.703708610640232e-001
	5.071787528954097e-008
	9.853870520282568e-004
8		1.791994999999999e+000
	5.000000000000000e+000
	0.000000000000000e+000
	0.000000000000000e+000
	0.000000000000000e+000
	5.000000000000000e+000
	1.791994999999999e+000
	1.790428988395774e+000
	8.038885704835008e-001
	8.038936422701092e-001
	8.154260977655172e+000
	4.943848000000000e+000
	9.897404442603078e+000
	1.066846495775089e+001
	9.859554727376947e+000
	8.154266869079899e+000
	8.154319891901180e+000
	1.971892292607461e+000
	1.630841316536929e+000
	1.630851920896772e+000
	1.630840138274694e+000
	3.215892420764929e-001
	7.161959650949946e-001
	3.215872133999052e-001
	-1.706786567421834e-001
	1.705295422273749e-001
	9.866418516592576e-004
	-1.715161840790446e-001
	5.891424600790174e-008
	5.891424727622053e-008
	1.705293749721776e-001
	5.071786608357165e-008
	9.865404179122731e-004
9		1.793215999999999e+000
	5.000000000000000e+000
	0.000000000000000e+000
	0.000000000000000e+000
	0.000000000000000e+000
	5.000000000000000e+000
	1.793215999999999e+000
	1.791648010015568e+000
	8.039541800954829e-001
	8.039592518811721e-001
	8.152641216479800e+000
	4.943848000000000e+000
	9.897404440859759e+000
	1.066851789935788e+001
	9.859519542283008e+000
	8.152647107934795e+000
	8.152700131022087e+000
	1.971885255725205e+000
	1.630517370552317e+000
	1.630527974965364e+000
	1.630516192284031e+000
	3.216154854286403e-001
	7.166835645634343e-001
	3.216134567524195e-001
	-1.708371143501934e-001
	1.706879998364386e-001
	9.877952636465454e-004
	-1.716757951000741e-001
	5.891454228645898e-008
	5.891454994966239e-008
	1.706878325803208e-001
	5.071785689203523e-008
	9.876938299200853e-004
10		1.794436999999999e+000
	5.000000000000000e+000
	0.000000000000000e+000
	0.000000000000000e+000
	0.000000000000000e+000
	5.000000000000000e+000
	1.794436999999999e+000
	1.792867031079248e+000
	8.040197431149522e-001
	8.040248148997222e-001
	8.151022030290184e+000
	4.943848000000000e+000
	9.897404439117084e+000
	1.066857080006971e+001
	9.859484369655512e+000
	8.151027921775441e+000
	8.151080945154954e+000
	1.971878221336188e+000
	1.630193539562602e+000
	1.630204144034093e+000
	1.630192361288263e+000
	3.216417101441321e-001
	7.171711638093899e-001
	3.216396814682780e-001
	-1.709955157071403e-001
	1.708464011940099e-001
	9.889487216696580e-004
	-1.718353499156679e-001
	5.891486476983232e-008
	5.891485256981355e-008
	1.708462339365328e-001
	5.071784770049881e-008
	9.888472879642962e-004
11		1.795657999999999e+000
	5.000000000000000e+000
	0.000000000000000e+000
	0.000000000000000e+000
	0.000000000000000e+000
	5.000000000000000e+000
	1.795657999999999e+000
	1.794086051586266e+000
	8.040852596291472e-001
	8.040903314129995e-001
	8.149403418577634e+000
	4.943848000000000e+000
	9.897404437375064e+000
	1.066862365996745e+001
	9.859449209483357e+000
	8.149409310093144e+000
	8.149462333733212e+000
	1.971871189438191e+000
	1.629869823466045e+000
	1.629880427989648e+000
	1.629868645185654e+000
	3.216679162578640e-001
	7.176587628326451e-001
	3.216658875823764e-001
	-1.711538608608136e-001
	1.710047463485243e-001
	9.901022256414854e-004
	-1.719948485741766e-001
	5.891515557721050e-008
	5.891515510114687e-008
	1.710045790905722e-001
	5.071783852228507e-008
	9.900007919571186e-004
12		1.796878999999999e+000
	5.000000000000000e+000
	0.000000000000000e+000
	0.000000000000000e+000
	0.000000000000000e+000
	5.000000000000000e+000
	1.796878999999999e+000
	1.795305071536056e+000
	8.041507297243435e-001
	8.041558015072787e-001
	8.147785380851992e+000
	4.943848000000000e+000
	9.897404435633710e+000
	1.066867647913109e+001
	9.859414061756015e+000
	8.147791272397740e+000
	8.147844296324651e+000
	1.971864160029111e+000
	1.629546222164614e+000
	1.629556826745586e+000
	1.629545043878178e+000
	3.216941038043430e-001
	7.181463616329730e-001
	3.216920751292231e-001
	-1.713121498606282e-001
	1.711630353493051e-001
	9.912557754757718e-004
	-1.721542911247709e-001
	5.891547265868269e-008
	5.891545747260807e-008
	1.711628680904022e-001
	5.071782935184288e-008
	9.911543418117128e-004
13		1.798099999999999e+000
	5.000000000000000e+000
	0.000000000000000e+000
	0.000000000000000e+000
	0.000000000000000e+000
	5.000000000000000e+000
	1.798099999999999e+000
	1.796524090928032e+000
	8.042161534870242e-001
	8.042212252690432e-001
	8.146167916611477e+000
	4.943848000000000e+000
	9.897404433892984e+000
	1.066872925764092e+001
	9.859378926462521e+000
	8.146173808187452e+000
	8.146226832369598e+000
	1.971857133106750e+000
	1.629222735557960e+000
	1.629233340189976e+000
	1.629221557265475e+000
	3.217202728181652e-001
	7.186339602101376e-001
	3.217182441434107e-001
	-1.714703827551056e-001
	1.713212682448025e-001
	9.924093710845536e-004
	-1.723136776158915e-001
	5.891575812100314e-008
	5.891575975525143e-008
	1.713211009851044e-001
	5.071782018917226e-008
	9.923079374410081e-004
14		1.799320999999999e+000
	5.000000000000000e+000
	0.000000000000000e+000
	0.000000000000000e+000
	0.000000000000000e+000
	5.000000000000000e+000
	1.799320999999999e+000
	1.797743109761645e+000
	8.042815310031816e-001
	8.042866027842848e-001
	8.144551025361537e+000
	4.943848000000000e+000
	9.897404432152930e+000
	1.066878199557668e+001
	9.859343803592250e+000
	8.144556916967732e+000
	8.144609941431426e+000
	1.971850108668985e+000
	1.628899363547170e+000
	1.628909968235498e+000
	1.628898185248643e+000
	3.217464233337241e-001
	7.191215585639208e-001
	3.217443946593379e-001
	-1.716285595932516e-001
	1.714794450837776e-001
	9.935630123815750e-004
	-1.724730080961514e-001
	5.891606988939202e-008
	5.891606194907695e-008
	1.714792778230713e-001
	5.071781103205275e-008
	9.934615787584634e-004
15		1.800541999999999e+000
	5.000000000000000e+000
	0.000000000000000e+000
	0.000000000000000e+000
	0.000000000000000e+000
	5.000000000000000e+000
	1.800541999999999e+000
	1.798962128036318e+000
	8.043468623585772e-001
	8.043519341387658e-001
	8.142934706605418e+000
	4.943848000000000e+000
	9.897404430413522e+000
	1.066883469301805e+001
	9.859308693134338e+000
	8.142940598241822e+000
	8.142993622955535e+000
	1.971843086713643e+000
	1.628576106032896e+000
	1.628586710771228e+000
	1.628574927728328e+000
	3.217725553853258e-001
	7.196091566940904e-001
	3.217705267113049e-001
	-1.717866804229419e-001
	1.716375659144287e-001
	9.947166992797260e-004
	-1.726322826137256e-001
	5.891635011678887e-008
	5.891636403632106e-008
	1.716373986528920e-001
	5.071780188603548e-008
	9.946152656777406e-004
16		1.801762999999999e+000
	5.000000000000000e+000
	0.000000000000000e+000
	0.000000000000000e+000
	0.000000000000000e+000
	5.000000000000000e+000
	1.801762999999999e+000
	1.800181145751488e+000
	8.044121476388538e-001
	8.044172194181286e-001
	8.141318959845860e+000
	4.943848000000000e+000
	9.897404428674754e+000
	1.066888735004424e+001
	9.859273595078113e+000
	8.141324851512456e+000
	8.141377876502563e+000
	1.971836067238590e+000
	1.628252962915690e+000
	1.628263567709300e+000
	1.628251784605082e+000
	3.217986690072250e-001
	7.200967546004222e-001
	3.217966403335689e-001
	-1.719447452932577e-001
	1.717956307856650e-001
	9.958704316944591e-004
	-1.727915012173580e-001
	5.891665670354485e-008
	5.891666596369305e-008
	1.717954635232253e-001
	5.071779274778976e-008
	9.957689981126337e-004
17		1.802983999999999e+000
	5.000000000000000e+000
	0.000000000000000e+000
	0.000000000000000e+000
	0.000000000000000e+000
	5.000000000000000e+000
	1.802983999999999e+000
	1.801400162906561e+000
	8.044773869293286e-001
	8.044824587076904e-001
	8.139703784586187e+000
	4.943848000000000e+000
	9.897404426936650e+000
	1.066893996673473e+001
	9.859238509412679e+000
	8.139709676282971e+000
	8.139762701518004e+000
	1.971829050241650e+000
	1.627929934096216e+000
	1.627940538938814e+000
	1.627928755779572e+000
	3.218247642335497e-001
	7.205843522826789e-001
	3.218227355602589e-001
	-1.721027542526774e-001
	1.719536397458773e-001
	9.970242095378103e-004
	-1.729506639554019e-001
	5.891693181681035e-008
	5.891696783777434e-008
	1.719534724826492e-001
	5.071778361842583e-008
	9.969227759772327e-004
18		1.804204999999999e+000
	5.000000000000000e+000
	0.000000000000000e+000
	0.000000000000000e+000
	0.000000000000000e+000
	5.000000000000000e+000
	1.804204999999999e+000
	1.802619179500976e+000
	8.045425803149268e-001
	8.045476520923766e-001
	8.138089180334942e+000
	4.943848000000000e+000
	9.897404425199188e+000
	1.066899254316796e+001
	9.859203436127519e+000
	8.138095072061901e+000
	8.138148097626102e+000
	1.971822035720716e+000
	1.627607019476188e+000
	1.627617624384618e+000
	1.627605841153508e+000
	3.218508410982668e-001
	7.210719497406358e-001
	3.218488124253418e-001
	-1.722607073492702e-001
	1.721115928433825e-001
	9.981780327269398e-004
	-1.731097708761288e-001
	5.891729115958810e-008
	5.891726958751065e-008
	1.721114255792577e-001
	5.071777449794368e-008
	9.980765991860490e-004
19		1.805425999999998e+000
	5.000000000000000e+000
	0.000000000000000e+000
	0.000000000000000e+000
	0.000000000000000e+000
	5.000000000000000e+000
	1.805425999999998e+000
	1.803838195534161e+000
	8.046077278803483e-001
	8.046127996568866e-001
	8.136475146598345e+000
	4.943848000000000e+000
	9.897404423462360e+000
	1.066904507942266e+001
	9.859168375211832e+000
	8.136481038355466e+000
	8.136534064159593e+000
	1.971815023673627e+000
	1.627284218956850e+000
	1.627294823913265e+000
	1.627283040628136e+000
	3.218768996352586e-001
	7.215595469740647e-001
	3.218748709626984e-001
	-1.724186046314393e-001
	1.722694901263200e-001
	9.993319011738840e-004
	-1.732688220275104e-001
	5.891756124754011e-008
	5.891757121290198e-008
	1.722693228613487e-001
	5.071776538301265e-008
	9.992304676538129e-004
20		1.806646999999998e+000
	5.000000000000000e+000
	0.000000000000000e+000
	0.000000000000000e+000
	0.000000000000000e+000
	5.000000000000000e+000
	1.806646999999998e+000
	1.805057211005528e+000
	8.046728297102445e-001
	8.046779014858720e-001
	8.134861682879874e+000
	4.943848000000000e+000
	9.897404421726183e+000
	1.066909757557731e+001
	9.859133326654902e+000
	8.134867574667151e+000
	8.134920600737674e+000
	1.971808014098242e+000
	1.626961532438898e+000
	1.626972137448593e+000
	1.626960354104154e+000
	3.219029398783843e-001
	7.220471439827290e-001
	3.219009112061863e-001
	-1.725764461477276e-001
	1.724273316434359e-001
	1.000485814794949e-003
	-1.734278174582399e-001
	5.891785779965631e-008
	5.891787276723903e-008
	1.724271643775028e-001
	5.071775627585318e-008
	1.000384381295284e-003
21		1.807867999999998e+000
	5.000000000000000e+000
	0.000000000000000e+000
	0.000000000000000e+000
	0.000000000000000e+000
	5.000000000000000e+000
	1.807867999999998e+000
	1.806276225914493e+000
	8.047378858888701e-001
	8.047429576635879e-001
	8.133248788686839e+000
	4.943848000000000e+000
	9.897404419990645e+000
	1.066915003170986e+001
	9.859098290446083e+000
	8.133254680504255e+000
	8.133307706867637e+000
	1.971801006992430e+000
	1.626638959823797e+000
	1.626649564892064e+000
	1.626637781483026e+000
	3.219289618613432e-001
	7.225347407663957e-001
	3.219269331895101e-001
	-1.727342319459782e-001
	1.725851174426178e-001
	1.001639773503879e-003
	-1.735867572161244e-001
	5.891818079817313e-008
	5.891817416170398e-008
	1.725849501759244e-001
	5.071774717868572e-008
	1.001538340025623e-003
22		1.809088999999998e+000
	5.000000000000000e+000
	0.000000000000000e+000
	0.000000000000000e+000
	0.000000000000000e+000
	5.000000000000000e+000
	1.809088999999998e+000
	1.807495240260493e+000
	8.048028965002233e-001
	8.048079682740320e-001
	8.131636463526512e+000
	4.943848000000000e+000
	9.897404418255761e+000
	1.066920244789838e+001
	9.859063266574637e+000
	8.131642355374064e+000
	8.131695381999002e+000
	1.971794002354047e+000
	1.626316501013005e+000
	1.626327106133584e+000
	1.626315322666205e+000
	3.219549656177364e-001
	7.230223373248388e-001
	3.219529369462658e-001
	-1.728919620747774e-001
	1.727428475723010e-001
	1.002793777217835e-003
	-1.737456413495377e-001
	5.891847249017701e-008
	5.891847552064178e-008
	1.727426803048126e-001
	5.071773808706936e-008
	1.002692343760269e-003
23		1.810309999999998e+000
	5.000000000000000e+000
	0.000000000000000e+000
	0.000000000000000e+000
	0.000000000000000e+000
	5.000000000000000e+000
	1.810309999999998e+000
	1.808714254042908e+000
	8.048678616279400e-001
	8.048729334008409e-001
	8.130024706909937e+000
	4.943848000000000e+000
	9.897404416521518e+000
	1.066925482422034e+001
	9.859028255029989e+000
	8.130030598787609e+000
	8.130083625700618e+000
	1.971787000180976e+000
	1.625994155908731e+000
	1.626004761086924e+000
	1.625992977555909e+000
	3.219809511810148e-001
	7.235099336578122e-001
	3.219789225099095e-001
	-1.730496365823772e-001
	1.729005220808766e-001
	1.003947825853122e-003
	-1.739044699067282e-001
	5.891879068009587e-008
	5.891877671970747e-008
	1.729003548120051e-001
	5.071772900877569e-008
	1.003846392414968e-003
24		1.811530999999998e+000
	5.000000000000000e+000
	0.000000000000000e+000
	0.000000000000000e+000
	0.000000000000000e+000
	5.000000000000000e+000
	1.811530999999998e+000
	1.809933267261193e+000
	8.049327813557220e-001
	8.049378531277153e-001
	8.128413518340533e+000
	4.943848000000000e+000
	9.897404414787907e+000
	1.066930716075333e+001
	9.858993255801350e+000
	8.128419410248318e+000
	8.128472437418166e+000
	1.971780000471058e+000
	1.625671924411662e+000
	1.625682529641225e+000
	1.625670746052818e+000
	3.220069185846610e-001
	7.239975297650964e-001
	3.220048899139174e-001
	-1.732072555162443e-001
	1.730581410155659e-001
	1.005101919323485e-003
	-1.740632429349032e-001
	5.891907763277970e-008
	5.891907784771888e-008
	1.730579737460817e-001
	5.071771993270247e-008
	1.005000485905471e-003
25		1.812751999999998e+000
	5.000000000000000e+000
	0.000000000000000e+000
	0.000000000000000e+000
	0.000000000000000e+000
	5.000000000000000e+000
	1.812751999999998e+000
	1.811152279914743e+000
	8.049976557667252e-001
	8.050027275378120e-001
	8.126802897330457e+000
	4.943848000000000e+000
	9.897404413054941e+000
	1.066935945757435e+001
	9.858958268878205e+000
	8.126808789268342e+000
	8.126861816721595e+000
	1.971773003222190e+000
	1.625349806424230e+000
	1.625360411710473e+000
	1.625348628059365e+000
	3.220328678619359e-001
	7.244851256464504e-001
	3.220308391915564e-001
	-1.733648189250077e-001
	1.732157044252484e-001
	1.006256057544375e-003
	-1.742219604827935e-001
	5.891939113844558e-008
	5.891937885138532e-008
	1.732155371547748e-001
	5.071771086773147e-008
	1.006154624148018e-003
26		1.813972999999998e+000
	5.000000000000000e+000
	0.000000000000000e+000
	0.000000000000000e+000
	0.000000000000000e+000
	5.000000000000000e+000
	1.813972999999998e+000
	1.812371292002962e+000
	8.050624849440988e-001
	8.050675567142797e-001
	8.125192843384562e+000
	4.943848000000000e+000
	9.897404411322626e+000
	1.066941171476052e+001
	9.858923294249792e+000
	8.125198735352537e+000
	8.125251763058012e+000
	1.971766008432223e+000
	1.625027801847410e+000
	1.625038407184097e+000
	1.625026623476526e+000
	3.220587990460984e-001
	7.249727213016355e-001
	3.220567703760806e-001
	-1.735223268563383e-001
	1.733732123574713e-001
	1.007410240435517e-003
	-1.743806225978991e-001
	5.891967344950900e-008
	5.891967974847035e-008
	1.733730450865229e-001
	5.071770180831159e-008
	1.007308807058864e-003
27		1.815193999999998e+000
	5.000000000000000e+000
	0.000000000000000e+000
	0.000000000000000e+000
	0.000000000000000e+000
	5.000000000000000e+000
	1.815193999999998e+000
	1.813590303525274e+000
	8.051272689702906e-001
	8.051323407395669e-001
	8.123583356021952e+000
	4.943848000000000e+000
	9.897404409590919e+000
	1.066946393238823e+001
	9.858888331905634e+000
	8.123589248020007e+000
	8.123642276004322e+000
	1.971759016099059e+000
	1.624705910585021e+000
	1.624716515977476e+000
	1.624704732208122e+000
	3.220847121701285e-001
	7.254603167304204e-001
	3.220826835004716e-001
	-1.736797793584670e-001
	1.735306648604625e-001
	1.008564467910653e-003
	-1.745392293283673e-001
	5.891998237039786e-008
	5.891998055673753e-008
	1.735304975883683e-001
	5.071769276221438e-008
	1.008463034554984e-003
28		1.816414999999998e+000
	5.000000000000000e+000
	0.000000000000000e+000
	0.000000000000000e+000
	0.000000000000000e+000
	5.000000000000000e+000
	1.816414999999998e+000
	1.814809314481065e+000
	8.051920079280871e-001
	8.051970796964592e-001
	8.121974434745665e+000
	4.943848000000000e+000
	9.897404407859895e+000
	1.066951611053422e+001
	9.858853381835038e+000
	8.121980326773789e+000
	8.122033355005845e+000
	1.971752026220558e+000
	1.624384132537674e+000
	1.624394737979680e+000
	1.624382954154762e+000
	3.221106072671368e-001
	7.259479119325610e-001
	3.221085785978425e-001
	-1.738371764789031e-001
	1.736880619817545e-001
	1.009718739888652e-003
	-1.746977807216355e-001
	5.892026018017304e-008
	5.892028124065974e-008
	1.736878947089373e-001
	5.071768372055807e-008
	1.009617306552978e-003
29		1.817635999999998e+000
	5.000000000000000e+000
	0.000000000000000e+000
	0.000000000000000e+000
	0.000000000000000e+000
	5.000000000000000e+000
	1.817635999999998e+000
	1.816028324869772e+000
	8.052567018997500e-001
	8.052617736672186e-001
	8.120366079067582e+000
	4.943848000000000e+000
	9.897404406129461e+000
	1.066956824927454e+001
	9.858818444027383e+000
	8.120371971125763e+000
	8.120424999632213e+000
	1.971745038794598e+000
	1.624062467607749e+000
	1.624073073104633e+000
	1.624061289218824e+000
	3.221364843700311e-001
	7.264355069078303e-001
	3.221344557010977e-001
	-1.739945182660283e-001
	1.738454037697679e-001
	1.010873056284966e-003
	-1.748562768260493e-001
	5.892056463174811e-008
	5.892058181800053e-008
	1.738452364959802e-001
	5.071767468667332e-008
	1.010771622970022e-003
30		1.818856999999998e+000
	5.000000000000000e+000
	0.000000000000000e+000
	0.000000000000000e+000
	0.000000000000000e+000
	5.000000000000000e+000
	1.818856999999998e+000
	1.817247334690777e+000
	8.053213509671700e-001
	8.053264227337361e-001
	8.118758288502756e+000
	4.943848000000000e+000
	9.897404404399694e+000
	1.066962034868516e+001
	9.858783518472221e+000
	8.118764180590985e+000
	8.118817209398475e+000
	1.971738053819087e+000
	1.623740915698256e+000
	1.623751521255346e+000
	1.623739737303322e+000
	3.221623435115645e-001
	7.269231016559836e-001
	3.221603148429927e-001
	-1.741518047669644e-001
	1.740026902717240e-001
	1.012027417018463e-003
	-1.750147176887239e-001
	5.892089571979398e-008
	5.892088228875992e-008
	1.740025229969465e-001
	5.071766566167036e-008
	1.011925983723608e-003
31		1.820077999999997e+000
	5.000000000000000e+000
	0.000000000000000e+000
	0.000000000000000e+000
	0.000000000000000e+000
	5.000000000000000e+000
	1.820077999999997e+000
	1.818466343943493e+000
	8.053859552121612e-001
	8.053910269778254e-001
	8.117151062562312e+000
	4.943848000000000e+000
	9.897404402670553e+000
	1.066967240884186e+001
	9.858748605158896e+000
	8.117156954680580e+000
	8.117209983758109e+000
	1.971731071291899e+000
	1.623419476711425e+000
	1.623430082322525e+000
	1.623418298310482e+000
	3.221881847244630e-001
	7.274106961767834e-001
	3.221861560562515e-001
	-1.743090360300713e-001
	1.741599215354365e-001
	1.013181822006305e-003
	-1.751731033574425e-001
	5.892119579620214e-008
	5.892118267070145e-008
	1.741597542596584e-001
	5.071765664221850e-008
	1.013080388731332e-003
32		1.821298999999997e+000
	5.000000000000000e+000
	0.000000000000000e+000
	0.000000000000000e+000
	0.000000000000000e+000
	5.000000000000000e+000
	1.821298999999997e+000
	1.819685352627306e+000
	8.054505147164152e-001
	8.054555864811785e-001
	8.115544400754894e+000
	4.943848000000000e+000
	9.897404400942044e+000
	1.066972442982029e+001
	9.858713704076740e+000
	8.115550292903187e+000
	8.115603322219803e+000
	1.971724091210898e+000
	1.623098150548983e+000
	1.623108756207900e+000
	1.623096972142036e+000
	3.222140080414020e-001
	7.278982904699860e-001
	3.222119793735512e-001
	-1.744662121024602e-001
	1.743170976088967e-001
	1.014336271165650e-003
	-1.753314338800652e-001
	5.892146490893424e-008
	5.892148292829802e-008
	1.743169303321846e-001
	5.071764763386888e-008
	1.014234837910891e-003
33		1.822519999999997e+000
	5.000000000000000e+000
	0.000000000000000e+000
	0.000000000000000e+000
	0.000000000000000e+000
	5.000000000000000e+000
	1.822519999999997e+000
	1.820904360741628e+000
	8.055150295611659e-001
	8.055201013250293e-001
	8.113938302595891e+000
	4.943848000000000e+000
	9.897404399214164e+000
	1.066977641169567e+001
	9.858678815215273e+000
	8.113944194774200e+000
	8.113997224356634e+000
	1.971717113573987e+000
	1.622776937114012e+000
	1.622787542826092e+000
	1.622775758701061e+000
	3.222398134948767e-001
	7.283858845353556e-001
	3.222377848273848e-001
	-1.746233330318560e-001
	1.744742185392223e-001
	1.015490764414514e-003
	-1.754897093036359e-001
	5.892176074340228e-008
	5.892178309707674e-008
	1.744740512619382e-001
	5.071763863329082e-008
	1.015389331180462e-003
34		1.823740999999997e+000
	5.000000000000000e+000
	0.000000000000000e+000
	0.000000000000000e+000
	0.000000000000000e+000
	5.000000000000000e+000
	1.823740999999997e+000
	1.822123368285861e+000
	8.055794998273286e-001
	8.055845715902923e-001
	8.112332767602979e+000
	4.943848000000000e+000
	9.897404397486904e+000
	1.066982835454283e+001
	9.858643938564070e+000
	8.112338659811295e+000
	8.112391689686294e+000
	1.971710138379080e+000
	1.622455836310048e+000
	1.622466442080642e+000
	1.622454657891096e+000
	3.222656011172482e-001
	7.288734783726527e-001
	3.222635724501173e-001
	-1.747803988663171e-001
	1.746312843743899e-001
	1.016645301672618e-003